% Model:              off_off_off.mph
% Version:            COMSOL 6.3.0.335
% Date:               Feb 6 2025, 22:41
% Table:              Table 9 - Global Evaluation 2
% k (1/m)                                         Eigenfrequency (Hz)                               Frequency (Hz)                                    p_ax (1)                                          p_tr (1)
0                                                 0.04514428009739759i                              0.04514428009739759i                              NaN                                               NaN
0                                                 0.04391962296830805                               0.04391962296830805                               NaN                                               NaN
0                                                 1955.0211804642363                                1955.0211804642363                                NaN                                               NaN
0                                                 1961.3546262725856                                1961.3546262725856                                NaN                                               NaN
0                                                 10671.11219121512                                 10671.11219121512                                 NaN                                               NaN
0                                                 10677.667574502375                                10677.667574502375                                NaN                                               NaN
0                                                 20921.40447463754                                 20921.40447463754                                 NaN                                               NaN
0                                                 26653.787627615176                                26653.787627615176                                NaN                                               NaN
0                                                 41360.06131153889                                 41360.06131153889                                 NaN                                               NaN
0                                                 41378.61702471798                                 41378.61702471798                                 NaN                                               NaN
0                                                 42271.63491464612                                 42271.63491464612                                 NaN                                               NaN
0                                                 43260.77183118227                                 43260.77183118227                                 NaN                                               NaN
0                                                 61275.52704630262                                 61275.52704630262                                 NaN                                               NaN
0                                                 61302.63797215087                                 61302.63797215087                                 NaN                                               NaN
0                                                 79858.44521956838                                 79858.44521956838                                 NaN                                               NaN
0                                                 86493.55560189688                                 86493.55560189688                                 NaN                                               NaN
0                                                 88704.15959267101                                 88704.15959267101                                 NaN                                               NaN
0                                                 90050.62056664334                                 90050.62056664334                                 NaN                                               NaN
0                                                 105216.55159512952                                105216.55159512952                                NaN                                               NaN
0                                                 105259.55242834512                                105259.55242834512                                NaN                                               NaN
0.4407397100995781                                0.053261685322304755+1.3443910395681483E-7i       0.053261685322304755+1.3443910395681483E-7i       1.4188044068147337E-7                             0.9999998581195586
0.4407397100995781                                212.7919878797896-7.766663212926647E-11i          212.7919878797896-7.766663212926647E-11i          0.9999999884751483                                1.1524851160427467E-8
0.4407397100995781                                1938.6878702272784+2.27452890637705E-7i           1938.6878702272784+2.27452890637705E-7i           0.006729712136628861                              0.9932702878633697
0.4407397100995781                                1977.7554148223182-9.548230703999185E-8i          1977.7554148223182-9.548230703999185E-8i          0.00689110134385878                               0.9931088986561408
0.4407397100995781                                10624.098941764674-1.8156550973865186E-6i         10624.098941764674-1.8156550973865186E-6i         0.020691698104620047                              0.9793083018953793
0.4407397100995781                                10724.862194389341+1.5970598760881098E-5i         10724.862194389341+1.5970598760881098E-5i         0.020962078548670667                              0.9790379214513312
0.4407397100995781                                20920.413615397985-2.863321877980394E-4i          20920.413615397985-2.863321877980394E-4i          0.05538567215592312                               0.9446143278440764
0.4407397100995781                                26654.91457450239+2.0617227706538788E-5i          26654.91457450239+2.0617227706538788E-5i          0.024617819939162466                              0.9753821800608373
0.4407397100995781                                41275.46796325352-1.5338220934507698E-4i          41275.46796325352-1.5338220934507698E-4i          0.05974972685535065                               0.9402502731446509
0.4407397100995781                                41463.28895056434-5.676720474569384E-5i           41463.28895056434-5.676720474569384E-5i           0.06001639638309601                               0.9399836036169033
0.4407397100995781                                42226.365327560095+8.299591122016271E-6i          42226.365327560095+8.299591122016271E-6i          0.9993836448223526                                6.163551776469163E-4
0.4407397100995781                                43305.711920203634+6.831155986857857E-5i          43305.711920203634+6.831155986857857E-5i          0.9991578376710383                                8.421623289625829E-4
0.4407397100995781                                61183.09296629622+1.3991751513083852E-4i          61183.09296629622+1.3991751513083852E-4i          0.07393703183567248                               0.9260629681643266
0.4407397100995781                                61395.10313410972-5.053853522539875E-4i           61395.10313410972-5.053853522539875E-4i           0.07410361489691265                               0.9258963851030872
0.4407397100995781                                79856.54086591501+5.208841302055617E-4i           79856.54086591501+5.208841302055617E-4i           0.06595050392592765                               0.9340494960740731
0.4407397100995781                                86495.508206925-3.387663478391997E-4i             86495.508206925-3.387663478391997E-4i             0.12244474514582068                               0.877555254854178
0.4407397100995781                                88677.51224974931-7.646375222469775E-5i           88677.51224974931-7.646375222469775E-5i           0.9967333839723382                                0.0032666160276613146
0.4407397100995781                                90077.53996494426-1.9674177289406055E-4i          90077.53996494426-1.9674177289406055E-4i          0.995969541301592                                 0.004030458698409358
0.4407397100995781                                105140.19387756253+0.0013817172240764234i         105140.19387756253+0.0013817172240764234i         0.10538019062646209                               0.8946198093735375
0.4407397100995781                                105335.59045344422-6.816736822807709E-6i          105335.59045344422-6.816736822807709E-6i          0.10530218791562637                               0.8946978120843736
0.8814794201991561                                0.19799667075738023+4.9296933708991065E-8i        0.19799667075738023+4.9296933708991065E-8i        5.6752982716176E-7                                0.9999994324701711
0.8814794201991561                                425.5835867869583+3.0774348548395217E-11i         425.5835867869583+3.0774348548395217E-11i         0.9999999538850483                                4.6114950839114324E-8
0.8814794201991561                                1919.6435724635267+1.0948321315442283E-7i         1919.6435724635267+1.0948321315442283E-7i         0.0066476390770585795                             0.9933523609229419
0.8814794201991561                                1997.002097580023-1.5342458271723444E-7i          1997.002097580023-1.5342458271723444E-7i          0.0069752237221888625                             0.9930247762778103
0.8814794201991561                                10574.15228339091-1.622196242920983E-5i           10574.15228339091-1.622196242920983E-5i           0.020555934552169197                              0.9794440654478302
0.8814794201991561                                10775.352974997233-6.055897172015723E-6i          10775.352974997233-6.055897172015723E-6i          0.021097468146093916                              0.9789025318539057
0.8814794201991561                                20917.443661962832+3.191459599961901E-4i          20917.443661962832+3.191459599961901E-4i          0.05535988804277444                               0.9446401119572262
0.8814794201991561                                26658.293005035164-1.8055141230348013E-4i         26658.293005035164-1.8055141230348013E-4i         0.024645635239133115                              0.9753543647608678
0.8814794201991561                                41182.363972678606+3.598814867945492E-4i          41182.363972678606+3.598814867945492E-4i          0.05961566051736158                               0.9403843394826374
0.8814794201991561                                41556.628400248024+9.899602459746881E-5i          41556.628400248024+9.899602459746881E-5i          0.060151855082724276                              0.9398481449172776
0.8814794201991561                                42108.8986086401+4.9510006492041026E-6i           42108.8986086401+4.9510006492041026E-6i           0.9993715531521784                                6.284468478221958E-4
0.8814794201991561                                43422.18987934749+3.598994085552611E-5i           43422.18987934749+3.598994085552611E-5i           0.9991688306491807                                8.311693508191493E-4
0.8814794201991561                                61078.43945901836+2.29671067675507E-4i            61078.43945901836+2.29671067675507E-4i            0.0738490909400472                                0.9261509090599549
0.8814794201991561                                61499.85177904525-1.9094625617248811E-4i          61499.85177904525-1.9094625617248811E-4i          0.07418938173263888                               0.9258106182673618
0.8814794201991561                                79850.83432682663+1.0454828845528119E-5i          79850.83432682663+1.0454828845528119E-5i          0.06599338879679892                               0.9340066112032013
0.8814794201991561                                86501.33664202975-0.0033533976532023i             86501.33664202975-0.0033533976532023i             0.12240303582533585                               0.8775969641746639
0.8814794201991561                                88603.11005775249-7.321884077675871E-5i           88603.11005775249-7.321884077675871E-5i           0.9967065544901341                                0.0032934455098664107
0.8814794201991561                                90152.7586662419-3.3027467208902585E-4i           90152.7586662419-3.3027467208902585E-4i           0.9959959463834502                                0.004004053616549847
0.8814794201991561                                105045.60397103043+3.5105589552952913E-4i         105045.60397103043+3.5105589552952913E-4i         0.10540294633682869                               0.8945970536631735
0.8814794201991561                                105429.22126862225+2.8827764775954444E-4i         105429.22126862225+2.8827764775954444E-4i         0.10527779596815141                               0.8947222040318497
1.3222191302987343                                0.443232807745982+8.74345921990584E-8i            0.443232807745982+8.74345921990584E-8i            1.2769723808752563E-6                             0.9999987230276196
1.3222191302987343                                638.3744037614031-3.344461330488273E-11i          638.3744037614031-3.344461330488273E-11i          0.9999998961728898                                1.0382710871871683E-7
1.3222191302987343                                1900.5839872960478+3.8726537197903664E-8i         1900.5839872960478+3.8726537197903664E-8i         0.006566766021444151                              0.9934332339785568
1.3222191302987343                                2016.3988269991569-1.1100515529268673E-7i         2016.3988269991569-1.1100515529268673E-7i         0.007059512032222026                              0.9929404879677765
1.3222191302987343                                10524.357263919213-2.444408847275569E-5i          10524.357263919213-2.444408847275569E-5i          0.020420118093142824                              0.9795798819068579
1.3222191302987343                                10826.055050754998-7.825345830515092E-7i          10826.055050754998-7.825345830515092E-7i          0.02123266176221414                               0.978767338237786
1.3222191302987343                                20912.501060060167+1.6482016048108505E-6i         20912.501060060167+1.6482016048108505E-6i         0.05531707870972579                               0.9446829212902751
1.3222191302987343                                26663.91578430705-1.3162596813870024E-4i          26663.91578430705-1.3162596813870024E-4i          0.02469180925279839                               0.9753081907472014
1.3222191302987343                                41089.186828312086-2.0818909531527424E-4i         41089.186828312086-2.0818909531527424E-4i         0.05948219057375102                               0.9405178094262477
1.3222191302987343                                41650.197101073834+1.1700462100940715E-4i         41650.197101073834+1.1700462100940715E-4i         0.060290181691284195                              0.939709818308717
1.3222191302987343                                41949.63030685904-1.993236524240724E-5i           41949.63030685904-1.993236524240724E-5i           0.9993596322741386                                6.403677258614048E-4
1.3222191302987343                                43579.809809301245-3.913806338508861E-5i          43579.809809301245-3.913806338508861E-5i          0.9991763143232769                                8.23685676721349E-4
1.3222191302987343                                60973.53094008189-5.316094219335368E-4i           60973.53094008189-5.316094219335368E-4i           0.07376118062994276                               0.9262388193700576
1.3222191302987343                                61604.91824167879+4.369383689952354E-4i           61604.91824167879+4.369383689952354E-4i           0.07427365375326778                               0.9257263462467311
1.3222191302987343                                79841.34576818628+5.828152074862684E-4i           79841.34576818628+5.828152074862684E-4i           0.06606434060301379                               0.9339356593969868
1.3222191302987343                                86511.05048965044-0.0016590642276091004i          86511.05048965044-0.0016590642276091004i          0.12233407384829838                               0.8776659261517026
1.3222191302987343                                88493.05749169475-1.029224859826584E-4i           88493.05749169475-1.029224859826584E-4i           0.9966767454195503                                0.003323254580448064
1.3222191302987343                                90264.17260708485+1.210716434436425E-4i           90264.17260708485+1.210716434436425E-4i           0.9960250835999375                                0.0039749164000602724
1.3222191302987343                                104949.92595579481+3.290032725203812E-4i          104949.92595579481+3.290032725203812E-4i          0.10542852593449815                               0.8945714740655033
1.3222191302987343                                105523.3070019491-9.166994237851269E-5i           105523.3070019491-9.166994237851269E-5i           0.10524950284138965                               0.8947504971586105
1.7629588403983123                                0.7874831603649608+4.4992163311606586E-8i         0.7874831603649608+4.4992163311606586E-8i         2.2702484687502314E-6                             0.9999977297515323
1.7629588403983123                                851.164052624103-1.2994424843441236E-13i          851.164052624103-1.2994424843441236E-13i          0.9999998151974491                                1.8480254964892406E-7
1.7629588403983123                                1881.5741239975353+1.501454505850773E-7i          1881.5741239975353+1.501454505850773E-7i          0.006486701646315054                              0.9935132983536834
1.7629588403983123                                2035.8803461129155-1.846204590602335E-8i          2035.8803461129155-1.846204590602335E-8i          0.007144357290441479                              0.9928556427095587
1.7629588403983123                                10474.74351851797-2.7847599462336754E-5i          10474.74351851797-2.7847599462336754E-5i          0.020284179799028742                              0.9797158202009703
1.7629588403983123                                10876.939093492576-5.342064752029945E-6i          10876.939093492576-5.342064752029945E-6i          0.02136772896187809                               0.9786322710381216
1.7629588403983123                                20905.59826738771-2.4385276059601485E-4i          20905.59826738771-2.4385276059601485E-4i          0.05525748548062535                               0.9447425145193732
1.7629588403983123                                26671.77092894933+1.0801415890365953E-4i          26671.77092894933+1.0801415890365953E-4i          0.024756068119855576                              0.9752439318801431
1.7629588403983123                                40996.05193132447+4.138025069137551E-4i           40996.05193132447+4.138025069137551E-4i           0.05934919497607119                               0.9406508050239295
1.7629588403983123                                41743.86532440107+6.397569960228304E-5i           41743.86532440107+6.397569960228304E-5i           0.06116328986587805                               0.9388367101341197
1.7629588403983123                                41768.21646048493+2.6820659956728244E-5i          41768.21646048493+2.6820659956728244E-5i          0.9986030530335754                                0.00139694696642476
1.7629588403983123                                43758.93088067201+7.852719049882997E-5i           43758.93088067201+7.852719049882997E-5i           0.9991791953234764                                8.208046765235096E-4
1.7629588403983123                                60868.582677267346+4.111134740023595E-4i          60868.582677267346+4.111134740023595E-4i          0.07367271136960458                               0.9263272886303955
1.7629588403983123                                61710.08551824731-6.703875127417261E-4i           61710.08551824731-6.703875127417261E-4i           0.07435703258020675                               0.9256429674197921
1.7629588403983123                                79828.10875343226-1.9396243005360462E-4i          79828.10875343226-1.9396243005360462E-4i          0.06616257877836153                               0.9338374212216394
1.7629588403983123                                86524.60121631394+0.002830589956295951i           86524.60121631394+0.002830589956295951i           0.12223852818915795                               0.877761471810843
1.7629588403983123                                88359.00236069095+6.387913161588519E-4i           88359.00236069095+6.387913161588519E-4i           0.9966513489380485                                0.0033486510619526737
1.7629588403983123                                90400.13440529029+3.092827301622831E-5i           90400.13440529029+3.092827301622831E-5i           0.9960495754604619                                0.003950424539539133
1.7629588403983123                                104853.74593181326+2.281791191530654E-4i          104853.74593181326+2.281791191530654E-4i          0.10545446703984761                               0.8945455329601522
1.7629588403983123                                105617.25056792503-5.736263370497526E-4i          105617.25056792503-5.736263370497526E-4i          0.105219761272541                                 0.8947802387274605
2.2036985504978905                                1.2301688849783292+4.187159224458966E-8i          1.2301688849783292+4.187159224458966E-8i          3.5474146226531793E-6                             0.9999964525853762
2.2036985504978905                                1063.9521514720557-1.1032987853592281E-10i        1063.9521514720557-1.1032987853592281E-10i        0.999999710588575                                 2.8941142542977766E-7
2.2036985504978905                                1862.6280755720245+8.237565379012551E-8i          1862.6280755720245+8.237565379012551E-8i          0.006407362799847152                              0.993592637200153
2.2036985504978905                                2055.432217428741+2.1712682989707327E-7i          2055.432217428741+2.1712682989707327E-7i          0.007229842370374638                              0.992770157629626
2.2036985504978905                                10425.319406489069+1.624868998999359E-5i          10425.319406489069+1.624868998999359E-5i          0.020148101117523888                              0.9798518988824757
2.2036985504978905                                10927.997050627606-2.8574221371869777E-5i         10927.997050627606-2.8574221371869777E-5i         0.021502688880677356                              0.9784973111193239
2.2036985504978905                                20896.750860071403-4.274456385097833E-5i          20896.750860071403-4.274456385097833E-5i          0.055181445322823375                              0.9448185546771768
2.2036985504978905                                26681.84312694255-3.2553853996064336E-4i          26681.84312694255-3.2553853996064336E-4i          0.02483803719577584                               0.9751619628042251
2.2036985504978905                                40902.980186964756-3.9127388619492526E-4i         40902.980186964756-3.9127388619492526E-4i         0.05921683385400973                               0.9407831661459904
2.2036985504978905                                41574.53578202192-2.9120843687896573E-5i          41574.53578202192-2.9120843687896573E-5i          0.9993545748962468                                6.454251037522573E-4
2.2036985504978905                                41837.663633057724-1.920635337376996E-4i          41837.663633057724-1.920635337376996E-4i          0.06055985584489181                               0.9394401441551088
2.2036985504978905                                43949.61674944002+4.889651474662645E-5i           43949.61674944002+4.889651474662645E-5i           0.9991785990709849                                8.21400929017208E-4
2.2036985504978905                                60763.64126000636-8.438661685267434E-5i           60763.64126000636-8.438661685267434E-5i           0.07358355262534536                               0.9264164473746546
2.2036985504978905                                61815.30960409238+0.0011945015986766273i          61815.30960409238+0.0011945015986766273i          0.07443963758838448                               0.9255603624116168
2.2036985504978905                                79811.16798193264-2.1316742605366902E-4i          79811.16798193264-2.1316742605366902E-4i          0.06628704378332319                               0.933712956216677
2.2036985504978905                                86541.93064231687-0.0070143237768699376i          86541.93064231687-0.0070143237768699376i          0.12211745324085058                               0.8778825467591487
2.2036985504978905                                88209.33291078573+2.077369296247368E-4i           88209.33291078573+2.077369296247368E-4i           0.9966323527165005                                0.0033676472835005343
2.2036985504978905                                90552.25758255486-4.464029317273202E-4i           90552.25758255486-4.464029317273202E-4i           0.9960674310906898                                0.003932568909309499
2.2036985504978905                                104757.19153825035+0.0025056107933337044i         104757.19153825035+0.0025056107933337044i         0.10548023069390262                               0.8945197693060978
2.2036985504978905                                105710.929060862+0.0020264974384985616i           105710.929060862+0.0020264974384985616i           0.10518909570599032                               0.8948109042940086
2.6444382605974686                                1.7713356285371693-1.1150159950916425E-7i         1.7713356285371693-1.1150159950916425E-7i         5.108543554107169E-6                              0.9999948914564493
2.6444382605974686                                1276.7383247504827-1.3180604141015978E-11i        1276.7383247504827-1.3180604141015978E-11i        0.9999995811475805                                4.188524197386752E-7
2.6444382605974686                                1843.7512959178841+1.176186516007257E-8i          1843.7512959178841+1.176186516007257E-8i          0.006328720201584308                              0.9936712797984166
2.6444382605974686                                2075.0485397056777+6.294325225798977E-9i          2075.0485397056777+6.294325225798977E-9i          0.00731599689337517                               0.992684003106625
2.6444382605974686                                10376.089858762543-3.2512871452376685E-6i         10376.089858762543-3.2512871452376685E-6i         0.02001187229814159                               0.9799881277018575
2.6444382605974686                                10979.224575620963+3.1054906621428178E-6i         10979.224575620963+3.1054906621428178E-6i         0.021637552933438758                              0.9783624470665604
2.6444382605974686                                20885.979608395846+4.077405198098978E-5i          20885.979608395846+4.077405198098978E-5i          0.05508937062974164                               0.944910629370259
2.6444382605974686                                26694.110258992518-2.225050742017368E-6i          26694.110258992518-2.225050742017368E-6i          0.024937242033577316                              0.9750627579664232
2.6444382605974686                                40809.98283249364-1.1983011611936992E-4i          40809.98283249364-1.1983011611936992E-4i          0.05908553141937031                               0.9409144685806307
2.6444382605974686                                41373.62308743099-4.641856113018217E-8i           41373.62308743099-4.641856113018217E-8i           0.999359383139381                                 6.406168606186691E-4
2.6444382605974686                                41931.523872152786-1.867889733770764E-5i          41931.523872152786-1.867889733770764E-5i          0.060690478927578916                              0.9393095210724228
2.6444382605974686                                44146.89110436447-2.3373335922760516E-5i          44146.89110436447-2.3373335922760516E-5i          0.9991756221434298                                8.243778565704209E-4
2.6444382605974686                                60658.72005853552-3.113342564316649E-5i           60658.72005853552-3.113342564316649E-5i           0.07349365228387111                               0.9265063477161289
2.6444382605974686                                61920.577330584834+1.733015395271557E-4i          61920.577330584834+1.733015395271557E-4i          0.07452152176705303                               0.925478478232948
2.6444382605974686                                79790.58038907821-2.760284951961525E-4i           79790.58038907821-2.760284951961525E-4i           0.06643643627454379                               0.9335635637254552
2.6444382605974686                                86563.0004984478-4.0775611856461484E-4i           86563.0004984478-4.0775611856461484E-4i           0.12197203159489113                               0.8780279684051071