% Model:              on_off_off.mph
% Version:            COMSOL 6.3.0.335
% Date:               Feb 7 2025, 00:12
% Table:              Table 9 - Global Evaluation 2
% k (1/m)                                         Eigenfrequency (Hz)                               Frequency (Hz)                                    p_ax (1)                                          p_tr (1)
0                                                 0.044351323493016556i                             0.044351323493016556i                             NaN                                               NaN
0                                                 0.046962923465486285                              0.046962923465486285                              NaN                                               NaN
0                                                 1871.379836438825                                 1871.379836438825                                 NaN                                               NaN
0                                                 1912.13954891713                                  1912.13954891713                                  NaN                                               NaN
0                                                 9309.396052155556                                 9309.396052155556                                 NaN                                               NaN
0                                                 10414.180990919916                                10414.180990919916                                NaN                                               NaN
0                                                 19663.979914641666                                19663.979914641666                                NaN                                               NaN
0                                                 24306.018177700444                                24306.018177700444                                NaN                                               NaN
0                                                 37910.600691060674                                37910.600691060674                                NaN                                               NaN
0                                                 38973.56290431408                                 38973.56290431408                                 NaN                                               NaN
0                                                 40218.462223196155                                40218.462223196155                                NaN                                               NaN
0                                                 41888.97627504729                                 41888.97627504729                                 NaN                                               NaN
0                                                 56681.79125800013                                 56681.79125800013                                 NaN                                               NaN
0                                                 57451.460808822296                                57451.460808822296                                NaN                                               NaN
0                                                 75465.2642583547                                  75465.2642583547                                  NaN                                               NaN
0                                                 79412.1774188371                                  79412.1774188371                                  NaN                                               NaN
0                                                 83348.17014390203                                 83348.17014390203                                 NaN                                               NaN
0                                                 87190.0398689703                                  87190.0398689703                                  NaN                                               NaN
0                                                 97796.36467099455                                 97796.36467099455                                 NaN                                               NaN
0                                                 101000.24232392386                                101000.24232392386                                NaN                                               NaN
0.4407397100995781                                0.05166989908835771-1.347872616832183E-7i         0.05166989908835771-1.347872616832183E-7i         1.4188038117973187E-7                             0.9999998581196189
0.4407397100995781                                203.280571418408-1.552450379637691E-10i           203.280571418408-1.552450379637691E-10i           0.9999999880440138                                1.1955986213298738E-8
0.4407397100995781                                1864.141155098808+1.5295551924619787E-7i          1864.141155098808+1.5295551924619787E-7i          0.006515808976589317                              0.9934841910234113
0.4407397100995781                                1919.446839491328-1.0945505848986924E-7i          1919.446839491328-1.0945505848986924E-7i          0.006871381729073031                              0.9931286182709271
0.4407397100995781                                9307.500389178163-5.744541081285076E-6i           9307.500389178163-5.744541081285076E-6i           0.022471487938499065                              0.9775285120615004
0.4407397100995781                                10416.238599190367-2.1626360995722145E-5i         10416.238599190367-2.1626360995722145E-5i         0.019954755348103374                              0.9800452446518969
0.4407397100995781                                19662.9432777227+5.3819266075177395E-5i           19662.9432777227+5.3819266075177395E-5i           0.05463882160874752                               0.9453611783912528
0.4407397100995781                                24307.161053618038-4.37767290197661E-6i           24307.161053618038-4.37767290197661E-6i           0.028995262612921718                              0.9710047373870786
0.4407397100995781                                37903.61327628976-4.135921856519572E-5i           37903.61327628976-4.135921856519572E-5i           0.06760665034433783                               0.9323933496556626
0.4407397100995781                                38980.64183773662+6.886869585656412E-5i           38980.64183773662+6.886869585656412E-5i           0.05359190060681948                               0.9464080993931805
0.4407397100995781                                40192.573400557136+2.6674332238598618E-5i         40192.573400557136+2.6674332238598618E-5i         0.9993608189254873                                6.391810745115182E-4
0.4407397100995781                                41914.596795690995-3.261322357182598E-5i          41914.596795690995-3.261322357182598E-5i          0.9991268221506059                                8.731778493943482E-4
0.4407397100995781                                56669.245593022846-6.654976282624511E-5i          56669.245593022846-6.654976282624511E-5i          0.09085642280225281                               0.9091435771977473
0.4407397100995781                                57464.04513171414+3.678828563309137E-5i           57464.04513171414+3.678828563309137E-5i           0.06443061583841926                               0.9355693841615814
0.4407397100995781                                75462.52112398503+5.529512208417484E-4i           75462.52112398503+5.529512208417484E-4i           0.07234315497786531                               0.9276568450221345
0.4407397100995781                                79414.91453039511+0.003633104850539318i           79414.91453039511+0.003633104850539318i           0.11895102882314433                               0.8810489711768561
0.4407397100995781                                83339.19176677706-7.111787867645445E-5i           83339.19176677706-7.111787867645445E-5i           0.9964991726736137                                0.0035008273263872985
0.4407397100995781                                87199.24167114132-2.6661476996104683E-4i          87199.24167114132-2.6661476996104683E-4i          0.9959578882809511                                0.0040421117190491945
0.4407397100995781                                97793.2475977252-5.148621115949767E-4i            97793.2475977252-5.148621115949767E-4i            0.10719534979764715                               0.8928046502023521
0.4407397100995781                                101003.26028708922-4.368277487431144E-4i          101003.26028708922-4.368277487431144E-4i          0.1198098652830448                                0.8801901347169551
0.8814794201991561                                0.1905749980281661+3.2552124503794505E-7i         0.1905749980281661+3.2552124503794505E-7i         5.675288673489132E-7                              0.9999994324711308
0.8814794201991561                                406.56049045752354+1.1481938832318268E-10i        406.56049045752354+1.1481938832318268E-10i        0.9999999521623911                                4.783760825731817E-8
0.8814794201991561                                1849.3220633045798+2.606169694705539E-8i          1849.3220633045798+2.606169694705539E-8i          0.00647373012794631                               0.9935262698720547
0.8814794201991561                                1934.4717163419843+9.425501952979995E-8i          1934.4717163419843+9.425501952979995E-8i          0.006915470636395817                              0.9930845293636049
0.8814794201991561                                9301.855592820753+3.6551337639889217E-6i          9301.855592820753+3.6551337639889217E-6i          0.02242468513073057                               0.9775753148692696
0.8814794201991561                                10422.36919456786+1.8474896958842415E-6i          10422.36919456786+1.8474896958842415E-6i          0.02000179928518522                               0.9799982007148142
0.8814794201991561                                19659.836411619206+2.202836256481911E-5i          19659.836411619206+2.202836256481911E-5i          0.05460949035743374                               0.9453905096425657
0.8814794201991561                                24310.58691076046-5.1144579638093576E-5i          24310.58691076046-5.1144579638093576E-5i          0.029027417062441892                              0.9709725829375581
0.8814794201991561                                37883.18213958299+2.289705469199597E-5i           37883.18213958299+2.289705469199597E-5i           0.06728481436924531                               0.9327151856307536
0.8814794201991561                                39001.347900476874-5.529837800604364E-5i          39001.347900476874-5.529837800604364E-5i          0.05391906129520224                               0.9460809387047975
0.8814794201991561                                40119.16355352723-3.643734741999294E-5i           40119.16355352723-3.643734741999294E-5i           0.9993582684586414                                6.417315413576006E-4
0.8814794201991561                                41987.20128898911+1.9813991946492873E-5i          41987.20128898911+1.9813991946492873E-5i          0.9991291816750582                                8.708183249415887E-4
0.8814794201991561                                56633.79236217891-7.168527006086575E-5i           56633.79236217891-7.168527006086575E-5i           0.08972533128406278                               0.9102746687159379
0.8814794201991561                                57499.6158008849+2.805433156717675E-4i            57499.6158008849+2.805433156717675E-4i            0.06559036220409756                               0.9344096377959018
0.8814794201991561                                75454.31451139213-5.416322734218957E-5i           75454.31451139213-5.416322734218957E-5i           0.07243307032700139                               0.9275669296729968
0.8814794201991561                                79423.09671933463-3.62474126459153E-4i            79423.09671933463-3.62474126459153E-4i            0.11886157206002063                               0.8811384279399794
0.8814794201991561                                83312.51096625508-3.519702757882861E-4i           83312.51096625508-3.519702757882861E-4i           0.9964994998748169                                0.003500500125182117
0.8814794201991561                                87226.59146425454-1.1718170429361788E-4i          87226.59146425454-1.1718170429361788E-4i          0.99595714121339                                  0.004042858786609607
0.8814794201991561                                97783.93719251042-7.642770378307928E-4i           97783.93719251042-7.642770378307928E-4i           0.10723857767945856                               0.8927614223205412
0.8814794201991561                                101012.28127454093+2.3575727057240734E-5i         101012.28127454093+2.3575727057240734E-5i         0.11976572970729715                               0.8802342702927024
1.3222191302987343                                0.42692914581806485+4.9876129656353464E-8i        0.42692914581806485+4.9876129656353464E-8i        1.276967521785314E-6                              0.9999987230324776
1.3222191302987343                                609.8391013090163+1.5748190192444076E-11i         609.8391013090163+1.5748190192444076E-11i         0.9999998923049642                                1.0769503608843161E-7
1.3222191302987343                                1832.4119121758008+6.239663051750633E-8i          1832.4119121758008+6.239663051750633E-8i          0.006413269355165199                              0.9935867306448345
1.3222191302987343                                1951.7246955943208+1.1791555092694126E-7i         1951.7246955943208+1.1791555092694126E-7i         0.006979244138012673                              0.9930207558619865
1.3222191302987343                                9292.584171940454+5.9265606315603065E-6i          9292.584171940454+5.9265606315603065E-6i          0.022349086115586662                              0.9776509138844129
1.3222191302987343                                10432.450467341294+7.036268939494034E-6i          10432.450467341294+7.036268939494034E-6i          0.02007775998863989                               0.9799222400113599
1.3222191302987343                                19654.66855099718-5.915097125434615E-5i           19654.66855099718-5.915097125434615E-5i           0.054560840437639174                              0.9454391595623602
1.3222191302987343                                24316.2860239962-1.1281242844414354E-4i           24316.2860239962-1.1281242844414354E-4i           0.029080747143661517                              0.9709192528563391
1.3222191302987343                                37850.71723807046+2.571123192638102E-5i           37850.71723807046+2.571123192638102E-5i           0.06681418098775359                               0.933185819012245
1.3222191302987343                                39034.27031954495+3.793229292702116E-7i           39034.27031954495+3.793229292702116E-7i           0.05439695847906472                               0.9456030415209352
1.3222191302987343                                40008.109880003016+2.7420880475960446E-5i         40008.109880003016+2.7420880475960446E-5i         0.9993559030473613                                6.440969526385285E-4
1.3222191302987343                                42096.912079302034-6.989962553149083E-5i          42096.912079302034-6.989962553149083E-5i          0.9991311571653313                                8.688428346691067E-4
1.3222191302987343                                56580.43285594996-6.233656881279566E-5i           56580.43285594996-6.233656881279566E-5i           0.08832311546503828                               0.911676884534962
1.3222191302987343                                57553.170205922535-1.982463296377869E-5i          57553.170205922535-1.982463296377869E-5i          0.06702341609090046                               0.932976583909099
1.3222191302987343                                75440.71195217587-1.3334515138213997E-4i          75440.71195217587-1.3334515138213997E-4i          0.07258038976396393                               0.9274196102360375
1.3222191302987343                                79436.65477716345+2.151079797308358E-4i           79436.65477716345+2.151079797308358E-4i           0.11871490425408861                               0.881285095745912
1.3222191302987343                                83268.86057619342+1.5434671115183315E-5i          83268.86057619342+1.5434671115183315E-5i          0.9965001252012479                                0.0034998747987523625
1.3222191302987343                                87271.35778186547-1.3675515996059681E-5i          87271.35778186547-1.3675515996059681E-5i          0.9959558221864876                                0.004044177813512681
1.3222191302987343                                97768.53578031309+2.634113263606897E-4i           97768.53578031309+2.634113263606897E-4i           0.1073090753524796                                0.8926909246475199
1.3222191302987343                                101027.19828104287+8.806378450757339E-4i          101027.19828104287+8.806378450757339E-4i          0.11969365309196182                               0.880306346908038
1.7629588403983123                                0.7583454323943393+5.9280288809088735E-8i         0.7583454323943393+5.9280288809088735E-8i         2.2702331116243245E-6                             0.9999977297668884
1.7629588403983123                                813.1157537310727-1.1759749513360238E-10i         813.1157537310727-1.1759749513360238E-10i         0.9999998083462487                                1.9165375167748085E-7
1.7629588403983123                                1814.8287774168114+5.0302148772119855E-8i         1814.8287774168114+5.0302148772119855E-8i         0.0063455542124764355                             0.9936544457875246
1.7629588403983123                                1969.787483823493+2.2188453065597505E-9i          1969.787483823493+2.2188453065597505E-9i          0.007051586987078347                              0.992948413012921
1.7629588403983123                                9279.876681536669-2.8887714518811003E-5i          9279.876681536669-2.8887714518811003E-5i          0.022247914594453813                              0.9777520854055457
1.7629588403983123                                10446.292073253135-4.7921308352262185E-5i         10446.292073253135-4.7921308352262185E-5i         0.020179361642703206                              0.9798206383572969
1.7629588403983123                                19647.455998571022+4.912963568909301E-5i          19647.455998571022+4.912963568909301E-5i          0.054493218370893166                              0.9455067816291067
1.7629588403983123                                24324.24335599724+2.4740275039322697E-4i          24324.24335599724+2.4740275039322697E-4i          0.02915486587117463                               0.970845134128825
1.7629588403983123                                37808.092040237236-4.79882240812362E-6i           37808.092040237236-4.79882240812362E-6i           0.06626077007497871                               0.9337392299250212
1.7629588403983123                                39077.53740941105-6.903813065784735E-5i           39077.53740941105-6.903813065784735E-5i           0.05495818778287318                               0.9450418122171276
1.7629588403983123                                39869.86077450897-6.905185173246082E-5i           39869.86077450897-6.905185173246082E-5i           0.9993546785773352                                6.453214226645463E-4
1.7629588403983123                                42233.27940772387-4.330886460630371E-5i           42233.27940772387-4.330886460630371E-5i           0.9991316623885804                                8.683376114191232E-4
1.7629588403983123                                56514.35152273027-6.58267613127394E-5i            56514.35152273027-6.58267613127394E-5i            0.08694687822642334                               0.9130531217735768
1.7629588403983123                                57619.52516410865-2.669115927343138E-4i           57619.52516410865-2.669115927343138E-4i           0.0684244632142932                                0.9315755367857079
1.7629588403983123                                75421.8233122346+0.001051727606971771i            75421.8233122346+0.001051727606971771i            0.07278146980359942                               0.9272185301964013
1.7629588403983123                                79455.497159805+2.0062010728985808E-4i            79455.497159805+2.0062010728985808E-4i            0.11851460409102929                               0.8814853959089706
1.7629588403983123                                83209.35510603488+5.353440061972366E-4i           83209.35510603488+5.353440061972366E-4i           0.9965011457537227                                0.003498854246276416
1.7629588403983123                                87332.42600506781-4.7218133811848705E-4i          87332.42600506781-4.7218133811848705E-4i          0.9959538424134982                                0.004046157586502874
1.7629588403983123                                97747.21478646887-0.0012209152291370727i          97747.21478646887-0.0012209152291370727i          0.10740473640930431                               0.892595263590697
1.7629588403983123                                101047.83979425608+0.002430910014933118i          101047.83979425608+0.002430910014933118i          0.11959577237123292                               0.880404227628767
2.2036985504978905                                1.184650840880344-6.599792187249388E-8i           1.184650840880344-6.599792187249388E-8i           3.547377129306547E-6                              0.9999964526228711
2.2036985504978905                                1016.389801002076-7.108674858431411E-11i          1016.389801002076-7.108674858431411E-11i          0.9999996999562261                                3.0004377333658364E-7
2.2036985504978905                                1796.9893489943938+3.4669025475979E-8i            1796.9893489943938+3.4669025475979E-8i            0.006274765161313888                              0.9937252348386857
2.2036985504978905                                1988.2430830542237+4.37828024716596E-7i           1988.2430830542237+4.37828024716596E-7i           0.007128322484553527                              0.9928716775154459
2.2036985504978905                                9263.974689631532-1.9626631654282507E-5i          9263.974689631532-1.9626631654282507E-5i          0.02212502977482124                               0.9778749702251783
2.2036985504978905                                10463.65270489727+1.1350528532978944E-5i          10463.65270489727+1.1350528532978944E-5i          0.020302684697645058                              0.9796973153023552
2.2036985504978905                                19638.21809940796-6.415442278153982E-4i           19638.21809940796-6.415442278153982E-4i           0.054407091668880796                              0.9455929083311192
2.2036985504978905                                24334.436929448468-1.0997401634036682E-4i         24334.436929448468-1.0997401634036682E-4i         0.029249248912682276                              0.970750751087317
2.2036985504978905                                37757.22837736672-3.3490374745028504E-4i          37757.22837736672-3.3490374745028504E-4i          0.06567863632743405                               0.9343213636725667
2.2036985504978905                                39129.22424123058+1.6575585278448286E-4i          39129.22424123058+1.6575585278448286E-4i          0.055548017155026615                              0.9444519828449721
2.2036985504978905                                39712.70888304086-4.123622297492931E-5i           39712.70888304086-4.123622297492931E-5i           0.9993544931347988                                6.455068652013478E-4
2.2036985504978905                                42388.009592767914-1.2467345346288853E-4i         42388.009592767914-1.2467345346288853E-4i         0.9991303990132568                                8.696009867436882E-4
2.2036985504978905                                56439.576176614195+5.024067635031155E-4i          56439.576176614195+5.024067635031155E-4i          0.08572193156861704                               0.9142780684313817
2.2036985504978905                                57694.64987179224+7.213314686299888E-5i           57694.64987179224+7.213314686299888E-5i           0.0696663239150752                                0.930333676084924
2.2036985504978905                                75397.79707808005+9.936539374696244E-4i           75397.79707808005+9.936539374696244E-4i           0.0730315730700653                                0.9269684269299351
2.2036985504978905                                79479.44158733559-0.0019384831992790828i          79479.44158733559-0.0019384831992790828i          0.11826512393846744                               0.8817348760615317
2.2036985504978905                                83135.36801372659-3.420809889126481E-4i           83135.36801372659-3.420809889126481E-4i           0.9965026615756946                                0.003497338424304989
2.2036985504978905                                87408.42340147606-8.10520250663642E-4i            87408.42340147606-8.10520250663642E-4i            0.9959511014773695                                0.004048898522630476
2.2036985504978905                                97720.18467580073+0.001367592524633849i           97720.18467580073+0.001367592524633849i           0.10752272178682756                               0.8924772782131728
2.2036985504978905                                101073.99588924166+9.8815227911939E-4i            101073.99588924166+9.8815227911939E-4i            0.11947481191445986                               0.8805251880855413
2.6444382605974686                                1.7057725146270057+7.54509952867663E-8i           1.7057725146270057+7.54509952867663E-8i           5.108465806661545E-6                              0.9999948915341934
2.6444382605974686                                1219.6606013999792-3.8734554179223863E-11i        1219.6606013999792-3.8734554179223863E-11i        0.9999995660715384                                4.339284605168407E-7
2.6444382605974686                                1779.051864991362-1.0906537685457416E-9i          1779.051864991362-1.0906537685457416E-9i          0.006202621286712314                              0.9937973787132877
2.6444382605974686                                2006.9328596782964-1.354164137710908E-8i          2006.9328596782964-1.354164137710908E-8i          0.007207733409078356                              0.9927922665909217
2.6444382605974686                                9245.152049635943-8.954441439842533E-7i           9245.152049635943-8.954441439842533E-7i           0.021984491500823097                              0.9780155084991758
2.6444382605974686                                10484.259028153818+1.233458414184517E-5i          10484.259028153818+1.233458414184517E-5i          0.020443611909161583                              0.9795563880908383
2.6444382605974686                                19626.98342238798+5.1921045448320346E-5i          19626.98342238798+5.1921045448320346E-5i          0.05430305485493079                               0.9456969451450699
2.6444382605974686                                24346.84006590254-3.1881752623435164E-6i          24346.84006590254-3.1881752623435164E-6i          0.02936323341765466                               0.9706367665823459
2.6444382605974686                                37699.851832138185+8.311386570468318E-6i          37699.851832138185+8.311386570468318E-6i          0.06510333451075256                               0.9348966654892461
2.6444382605974686                                39187.60901565879+3.7966214253256807E-6i          39187.60901565879+3.7966214253256807E-6i          0.0561325004839726                                0.9438674995160279
2.6444382605974686                                39542.459383000736-2.187606303359162E-5i          39542.459383000736-2.187606303359162E-5i          0.9993530686419531                                6.469313580467729E-4
2.6444382605974686                                42555.29507908468+1.4833265307846085E-5i          42555.29507908468+1.4833265307846085E-5i          0.9991274992200856                                8.725007799142799E-4
2.6444382605974686                                56358.87488691544-1.1068684244015717E-4i          56358.87488691544-1.1068684244015717E-4i          0.08467218534866275                               0.915327814651338
2.6444382605974686                                57775.77940428732+9.475910980933203E-5i           57775.77940428732+9.475910980933203E-5i           0.07072595270059223                               0.9292740472994079
2.6444382605974686                                75368.80997105541+4.070665493503115E-5i           75368.80997105541+4.070665493503115E-5i           0.07332510037787346                               0.9266748996221273
2.6444382605974686                                79508.33572669148-2.272601509399014E-4i           79508.33572669148-2.272601509399014E-4i           0.11797199809131735                               0.8820280019086826